 TITLE = "All parameters for j=ja, tmks= 5.61082008E-01 "
 VARIABLES = "Z", "RH_A", "P_A", "T_A", "E_A", "UZ_A", "UR_A", "UM_A", "M_A", "RH_B", "P_B", "T_B", "E_B", "UZ_B", "UR_B", "UM_B", "M_B", "RH", "P", "T", "E", "UZ", "UR", "UM", "M", "X_A"
 ZONE T="ZONE 1", I=         241, F=POINT
  0.00000000E+00  7.28494489E-02  4.14706185E-01  3.96322272E-01  4.83208839E-02  1.91808138E+00  0.00000000E+00  1.91808138E+00  8.00930326E-01  9.17657593E-01  2.90122832E-01  3.05837154E-01  4.94095176E-02  8.89357906E-01  0.00000000E+00  8.89357906E-01  1.57919871E+00  9.90507042E-01  7.04829018E-01  3.53466924E-01  9.77304015E-02  9.65018083E-01  0.00000000E+00  9.65018083E-01  1.40820955E+00  7.35476335E-02
  2.50000000E-01  7.26703846E-02  4.14706185E-01  3.97298835E-01  4.80071811E-02  1.88005456E+00 -2.05894070E-02  1.89032123E+00  7.88367868E-01  8.24098118E-01  2.90122832E-01  3.40558703E-01  5.11699899E-02  9.77968088E-01 -9.14365849E-03  9.82529281E-01  1.65331209E+00  8.96768502E-01  7.04829018E-01  3.71906565E-01  9.91771710E-02  1.05106942E+00 -1.00711743E-02  1.05609300E+00  1.47806230E+00  8.10358352E-02
  5.00000000E-01  7.14300688E-02  4.07985814E-01  3.97647477E-01  4.70995251E-02  1.86319493E+00 -4.74635733E-02  1.88677748E+00  7.86544895E-01  7.51498078E-01  2.79844165E-01  3.60227927E-01  5.17299984E-02  1.05984395E+00 -2.11128325E-02  1.07034831E+00  1.75122428E+00  8.22928147E-01  6.87829979E-01  3.81592426E-01  9.88295235E-02  1.12957473E+00 -2.34000738E-02  1.14121479E+00  1.56250624E+00  8.67998854E-02
  7.50000000E-01  6.94472591E-02  3.96554893E-01  3.97541471E-01  4.57587727E-02  1.85891976E+00 -8.03435505E-02  1.89866661E+00  7.91606664E-01  6.94769499E-01  2.67026882E-01  3.71794737E-01  5.17630702E-02  1.13187877E+00 -3.55092044E-02  1.14949626E+00  1.85123382E+00  7.64216758E-01  6.63581775E-01  3.86810988E-01  9.75218428E-02  1.19794773E+00 -3.95834705E-02  1.21757861E+00  1.64662391E+00  9.08737716E-02
  1.00000000E+00  6.69963300E-02  3.82153389E-01  3.97119251E-01  4.41365095E-02  1.86159242E+00 -1.17306458E-01  1.91934966E+00  8.00655294E-01  6.48780959E-01  2.53989701E-01  3.78710206E-01  5.14912420E-02  1.19451010E+00 -5.17859708E-02  1.22012837E+00  1.94696144E+00  7.15777289E-01  6.36143091E-01  3.89592171E-01  9.56277515E-02  1.25694861E+00 -5.79186496E-02  1.28558180E+00  1.72626327E+00  9.35994073E-02
  1.25000000E+00  6.43010002E-02  3.66199466E-01  3.96491805E-01  4.23642821E-02  1.86769823E+00 -1.55864023E-01  1.94406884E+00  8.11608301E-01  6.10044926E-01  2.41416346E-01  3.82819322E-01  5.10035594E-02  1.24902514E+00 -6.92819880E-02  1.28319864E+00  2.03658385E+00  6.74345926E-01  6.07615811E-01  3.90969023E-01  9.33678416E-02  1.30801756E+00 -7.75378568E-02  1.34622837E+00  1.80035360E+00  9.53531381E-02
  1.50000000E+00  6.15260570E-02  3.49735155E-01  3.95744095E-01  4.05430278E-02  1.87523731E+00 -1.93757237E-01  1.96973495E+00  8.23099841E-01  5.76398855E-01  2.29502791E-01  3.85171247E-01  5.03516443E-02  1.29676091E+00 -8.73227595E-02  1.33971102E+00  2.11977385E+00  6.37924912E-01  5.79237946E-01  3.91505443E-01  9.08946721E-02  1.35255333E+00 -9.75880644E-02  1.40049761E+00  1.86879827E+00  9.64471772E-02
  1.75000000E+00  5.87811823E-02  3.33452044E-01  3.94938347E-01  3.87418291E-02  1.88318085E+00 -2.29310852E-01  1.99454354E+00  8.34316471E-01  5.46532337E-01  2.18301908E-01  3.86394259E-01  4.95760132E-02  1.33888195E+00 -1.05305404E-01  1.39053816E+00  2.19671093E+00  6.05313520E-01  5.51753952E-01  3.91528542E-01  8.83178423E-02  1.39173809E+00 -1.17347406E-01  1.44922454E+00  1.93182528E+00  9.71086560E-02
  2.00000000E+00  5.61323509E-02  3.17764820E-01  3.94118499E-01  3.70030739E-02  1.89105333E+00 -2.61476619E-01  2.01756014E+00  8.44821636E-01  5.19640510E-01  2.07821843E-01  3.86880810E-01  4.87115780E-02  1.37634317E+00 -1.22743529E-01  1.43640445E+00  2.26774114E+00  5.75772861E-01  5.25586663E-01  3.91237598E-01  8.57146519E-02  1.42652249E+00 -1.36268679E-01  1.49310306E+00  1.98976831E+00  9.74904424E-02
  2.25000000E+00  5.36146023E-02  3.02892710E-01  3.93314511E-01  3.53496134E-02  1.89865887E+00 -2.89729284E-01  2.03838234E+00  8.54412536E-01  4.95206666E-01  1.98051721E-01  3.86884326E-01  4.77879169E-02  1.40990983E+00 -1.39277850E-01  1.47790898E+00  2.33325632E+00  5.48821268E-01  5.00944431E-01  3.90758529E-01  8.31375302E-02  1.45765595E+00 -1.53975520E-01  1.53271139E+00  2.04298697E+00  9.76904603E-02
  2.50000000E+00  5.12428500E-02  2.88927958E-01  3.92545976E-01  3.37913014E-02  1.90592455E+00 -3.13923471E-01  2.05690613E+00  8.63020589E-01  4.72875524E-01  1.88968277E-01  3.86572598E-01  4.68289781E-02  1.44019105E+00 -1.54666170E-01  1.51555241E+00  2.39365060E+00  5.24118374E-01  4.77896235E-01  3.90172857E-01  8.06202795E-02  1.48572563E+00 -1.70236695E-01  1.56853616E+00  2.09183633E+00  9.77696119E-02
  2.75000000E+00  4.90198120E-02  2.75885878E-01  3.91824932E-01  3.23299935E-02  1.91282148E+00 -3.34163067E-01  2.07318121E+00  8.70649147E-01  4.52382775E-01  1.80538736E-01  3.86058692E-01  4.58532604E-02  1.46767236E+00 -1.68764173E-01  1.54975890E+00  2.44930463E+00  5.01402587E-01  4.56424614E-01  3.89534039E-01  7.81832539E-02  1.51119253E+00 -1.84934458E-01  1.60099170E+00  2.13665547E+00  9.77653750E-02
  3.00000000E+00  4.69413382E-02  2.63738438E-01  3.91157985E-01  3.09629934E-02  1.91933095E+00 -3.50699995E-01  2.08732859E+00  8.77337455E-01  4.33517316E-01  1.72723438E-01  3.85419623E-01  4.48744402E-02  1.49274318E+00 -1.81504163E-01  1.58089257E+00  2.50058014E+00  4.80458654E-01  4.36461876E-01  3.88877167E-01  7.58374336E-02  1.53442128E+00 -1.98034781E-01  1.63043474E+00  2.17776367E+00  9.77010983E-02
  3.25000000E+00  4.49997704E-02  2.52435449E-01  3.90547877E-01  2.96852651E-02  1.92543360E+00 -3.63862781E-01  2.09949713E+00  8.83141092E-01  4.16101544E-01  1.65478527E-01  3.84708087E-01  4.39022140E-02  1.51571871E+00 -1.92875426E-01  1.60926943E+00  2.54781819E+00  4.61101314E-01  4.17913976E-01  3.88225011E-01  7.35874791E-02  1.55570358E+00 -2.09562413E-01  1.65717550E+00  2.21545987E+00  9.75919369E-02
  3.50000000E+00  4.31859545E-02  2.41917290E-01  3.89994626E-01  2.84907752E-02  1.93110878E+00 -3.74009403E-01  2.10984216E+00  8.88121950E-01  3.99981247E-01  1.58758395E-01  3.83960074E-01  4.29431614E-02  1.53685678E+00 -2.02907660E-01  1.63516628E+00  2.59133894E+00  4.43167202E-01  4.00675685E-01  3.87591933E-01  7.14339366E-02  1.57527602E+00 -2.19581259E-01  1.68148614E+00  2.25002309E+00  9.74484445E-02
  3.75000000E+00  4.14903850E-02  2.32122184E-01  3.89496375E-01  2.73732616E-02  1.93633721E+00 -3.81497929E-01  2.11851609E+00  8.92343380E-01  3.85020351E-01  1.52517657E-01  3.83199944E-01  4.20015225E-02  1.55637078E+00 -2.11657773E-01  1.65882729E+00  2.63144189E+00  4.26510736E-01  3.84639841E-01  3.86986498E-01  6.93747841E-02  1.59333340E+00 -2.28179593E-01  1.70360719E+00  2.28171342E+00  9.72786416E-02
  4.00000000E+00  3.99038167E-02  2.22990120E-01  3.89050002E-01  2.63266460E-02  1.94110401E+00 -3.86669407E-01  2.12566468E+00  8.95867936E-01  3.71098032E-01  1.46712594E-01  3.82443903E-01  4.10798428E-02  1.57443941E+00 -2.19199762E-01  1.68046905E+00  2.66840643E+00  4.11001849E-01  3.69702714E-01  3.86413264E-01  6.74064888E-02  1.61003857E+00 -2.35459246E-01  1.72375249E+00  2.31077284E+00  9.70891417E-02
  4.25000000E+00  3.84175611E-02  2.14464782E-01  3.88651575E-01  2.53452328E-02  1.94540068E+00 -3.89838812E-01  2.13142593E+00  8.98756364E-01  3.58106919E-01  1.41302099E-01  3.81702407E-01  4.01794813E-02  1.59121409E+00 -2.25617218E-01  1.70028455E+00  2.70249246E+00  3.96524480E-01  3.55766881E-01  3.85874034E-01  6.55247141E-02  1.62552971E+00 -2.41527946E-01  1.74211300E+00  2.33742615E+00  9.68857234E-02
  4.50000000E+00  3.70236042E-02  2.06494334E-01  3.88296685E-01  2.44237866E-02  1.94922615E+00 -3.91291093E-01  2.13593011E+00  9.01067124E-01  3.45951759E-01  1.36248224E-01  3.80981864E-01  3.93009946E-02  1.60682445E+00 -2.30997916E-01  1.71844637E+00  2.73394115E+00  3.82975364E-01  3.42742558E-01  3.85368734E-01  6.37247812E-02  1.63992565E+00 -2.46494033E-01  1.75885987E+00  2.36188176E+00  9.66735924E-02
  4.75000000E+00  3.57146272E-02  1.99031584E-01  3.87980694E-01  2.35575436E-02  1.95258676E+00 -3.91280345E-01  2.13929985E+00  9.02856133E-01  3.34548276E-01  1.31516413E-01  3.80285842E-01  3.84444188E-02  1.62138266E+00 -2.35430040E-01  1.73510919E+00  2.76297569E+00  3.70262904E-01  3.30547997E-01  3.84896049E-01  6.20019624E-02  1.65332977E+00 -2.50462968E-01  1.77414690E+00  2.38433243E+00  9.64574816E-02
  5.00000000E+00  3.44839785E-02  1.92033815E-01  3.87698912E-01  2.27421889E-02  1.95549569E+00 -3.90030800E-01  2.14165051E+00  9.04176592E-01  3.23822112E-01  1.27075531E-01  3.79615930E-01  3.76094704E-02  1.63498660E+00 -2.38999634E-01  1.75041206E+00  2.78980221E+00  3.58306090E-01  3.19109346E-01  3.84453864E-01  6.03516593E-02  1.66583293E+00 -2.53535126E-01  1.78811256E+00  2.40495608E+00  9.62416755E-02
  5.25000000E+00  3.33256232E-02  1.85462472E-01  3.87446732E-01  2.19738204E-02  1.95797196E+00 -3.87738814E-01  2.14309028E+00  9.05078844E-01  3.13707815E-01  1.22897736E-01  3.78972365E-01  3.67956853E-02  1.64772236E+00 -2.41788962E-01  1.76448011E+00  2.81461066E+00  3.47033438E-01  3.08360209E-01  3.84039594E-01  5.87695057E-02  1.67751563E+00 -2.55804527E-01  1.80088167E+00  2.42391655E+00  9.60300061E-02
  5.50000000E+00  3.22340862E-02  1.79282785E-01  3.87219719E-01  2.12489076E-02  1.96003932E+00 -3.84575308E-01  2.14372033E+00  9.05610277E-01  3.04147880E-01  1.18958280E-01  3.78354479E-01  3.60025122E-02  1.65966617E+00 -2.43875526E-01  1.77742616E+00  2.83757572E+00  3.36381966E-01  2.98241065E-01  3.83650411E-01  5.72514198E-02  1.68844968E+00 -2.57358202E-01  1.81256688E+00  2.44136438E+00  9.58258451E-02
  5.75000000E+00  3.12043944E-02  1.73463391E-01  3.87013676E-01  2.05642510E-02  1.96172500E+00 -3.80688378E-01  2.14363497E+00  9.05815247E-01  2.95091835E-01  1.15235247E-01  3.77761018E-01  3.52293727E-02  1.67088591E+00 -2.45331554E-01  1.78935205E+00  2.85885782E+00  3.26296230E-01  2.88698638E-01  3.83283405E-01  5.57936237E-02  1.69869946E+00 -2.58276012E-01  1.82326992E+00  2.45743762E+00  9.56321021E-02
  6.00000000E+00  3.02320241E-02  1.67975973E-01  3.86824681E-01  1.99169450E-02  1.96305869E+00 -3.76205852E-01  2.14292174E+00  9.05735045E-01  2.86495407E-01  1.11709284E-01  3.77190373E-01  3.44756981E-02  1.68144233E+00 -2.46223803E-01  1.80034981E+00  2.87860402E+00  3.16727431E-01  2.79685256E-01  3.82935692E-01  5.43926431E-02  1.70832296E+00 -2.58630750E-01  1.83308270E+00  2.47226264E+00  9.54512339E-02
  6.25000000E+00  2.93128529E-02  1.62794930E-01  3.86649118E-01  1.93043449E-02  1.96407151E+00 -3.71237721E-01  2.14166158E+00  9.05407905E-01  2.78319742E-01  1.08363323E-01  3.76640745E-01  3.37409498E-02  1.69139001E+00 -2.46613588E-01  1.81050267E+00  2.89694901E+00  3.07632595E-01  2.71158253E-01  3.82604498E-01  5.30452947E-02  1.71737254E+00 -2.58488432E-01  1.84208832E+00  2.48595490E+00  9.52852637E-02
  6.50000000E+00  2.84431168E-02  1.57897083E-01  3.86483679E-01  1.87240376E-02  1.96479517E+00 -3.65878365E-01  2.13992900E+00  9.04869048E-01  2.70530710E-01  1.05182322E-01  3.76110258E-01  3.30246289E-02  1.70077818E+00 -2.46556954E-01  1.81988601E+00  2.91401598E+00  2.98973827E-01  2.63079405E-01  3.82287200E-01  5.17486666E-02  1.72589565E+00 -2.57908693E-01  1.85036193E+00  2.49861981E+00  9.51358087E-02
  6.75000000E+00  2.76193734E-02  1.53261410E-01  3.86325373E-01  1.81738167E-02  1.96526134E+00 -3.60208568E-01  2.13779234E+00  9.04150754E-01  2.63098285E-01  1.02153012E-01  3.75597037E-01  3.23262784E-02  1.70965135E+00 -2.46104925E-01  1.82856812E+00  2.92991753E+00  2.90717659E-01  2.55414423E-01  3.81981360E-01  5.05000950E-02  1.73393535E+00 -2.56945241E-01  1.85797154E+00  2.51035341E+00  9.50041135E-02
  7.00000000E+00  2.68384687E-02  1.48868815E-01  3.86171514E-01  1.76516601E-02  1.96550102E+00 -3.54297317E-01  2.13531403E+00  9.03282475E-01  2.55995985E-01  9.92636790E-02  3.75099262E-01  3.16454809E-02  1.71804989E+00 -2.45303819E-01  1.83661091E+00  2.94475648E+00  2.82834454E-01  2.48132494E-01  3.81684736E-01  4.92971410E-02  1.74153080E+00 -2.55646330E-01  1.86497868E+00  2.52124319E+00  9.48910868E-02
  7.25000000E+00  2.60975088E-02  1.44701921E-01  3.86019712E-01  1.71557118E-02  1.96554420E+00 -3.48203386E-01  2.13255085E+00  9.02290953E-01  2.49200391E-01  9.65039568E-02  3.74615203E-01  3.09818545E-02  1.72601049E+00 -2.44195569E-01  1.84407059E+00  2.95862670E+00  2.75297900E-01  2.41205878E-01  3.81395293E-01  4.81375663E-02  1.74871765E+00 -2.54055233E-01  1.87143909E+00  2.53136873E+00  9.47973406E-02
  7.50000000E+00  2.53938342E-02  1.40744895E-01  3.85867862E-01  1.66842646E-02  1.96541949E+00 -3.41976732E-01  2.12955429E+00  9.01200371E-01  2.42690720E-01  9.38646516E-02  3.74143237E-01  3.03350469E-02  1.73356656E+00 -2.42818063E-01  1.85099818E+00  2.97161385E+00  2.68084554E-01  2.34609547E-01  3.81111196E-01  4.70193115E-02  1.75552841E+00 -2.52210692E-01  1.87740327E+00  2.54080240E+00  9.47232276E-02
  7.75000000E+00  2.47249984E-02  1.36983283E-01  3.85714118E-01  1.62357465E-02  1.96515394E+00 -3.35659715E-01  2.12637086E+00  9.00032501E-01  2.36448459E-01  9.13375825E-02  3.73681866E-01  2.97047292E-02  1.74074857E+00 -2.41205472E-01  1.85744008E+00  2.98379604E+00  2.61173457E-01  2.28320865E-01  3.80830809E-01  4.59404757E-02  1.76199277E+00 -2.50147350E-01  1.88291698E+00  2.54960998E+00  9.46688789E-02
  8.00000000E+00  2.40887472E-02  1.33403874E-01  3.85556886E-01  1.58087074E-02  1.96477289E+00 -3.29288156E-01  2.12304238E+00  8.98806864E-01  2.30457046E-01  8.89154442E-02  3.73229712E-01  2.90905903E-02  1.74758438E+00 -2.39388567E-01  1.86343846E+00  2.99524451E+00  2.54545793E-01  2.22319318E-01  3.80552681E-01  4.48992977E-02  1.76813785E+00 -2.47896146E-01  1.88802172E+00  2.55785120E+00  9.46342383E-02
  8.25000000E+00  2.34830022E-02  1.29994575E-01  3.85394796E-01  1.54018083E-02  1.96429987E+00 -3.22892256E-01  2.11960638E+00  8.97540892E-01  2.24701598E-01  8.65916884E-02  3.72785527E-01  2.84923317E-02  1.75409948E+00 -2.37395017E-01  1.86903169E+00  3.00602422E+00  2.48184601E-01  2.16586263E-01  3.80275537E-01  4.38941400E-02  1.77398845E+00 -2.45484688E-01  1.89275514E+00  2.56558032E+00  9.46190947E-02
  8.50000000E+00  2.29058446E-02  1.26744301E-01  3.85226690E-01  1.50138115E-02  1.96375662E+00 -3.16497391E-01  2.11609638E+00  8.96250083E-01  2.19168681E-01  8.43604202E-02  3.72348182E-01  2.79096628E-02  1.76031722E+00 -2.35249667E-01  1.87425472E+00  3.01619438E+00  2.42074526E-01  2.11104722E-01  3.79998268E-01  4.29234743E-02  1.77956729E+00 -2.42937580E-01  1.89715142E+00  2.57284662E+00  9.46231106E-02
  8.75000000E+00  2.23555013E-02  1.23642879E-01  3.85051600E-01  1.46435714E-02  1.96316302E+00 -3.10124805E-01  2.11254222E+00  8.94948159E-01  2.13846104E-01  8.22163106E-02  3.71916665E-01  2.73422974E-02  1.76625904E+00 -2.32974804E-01  1.87913940E+00  3.02580899E+00  2.36201605E-01  2.05859189E-01  3.79719914E-01  4.19858689E-02  1.78489519E+00 -2.40276731E-01  1.90124160E+00  2.57969478E+00  9.46458481E-02
  9.00000000E+00  2.18303324E-02  1.20680955E-01  3.84868731E-01  1.42900269E-02  1.96253723E+00 -3.03792197E-01  2.10897033E+00  8.93647213E-01  2.08722757E-01  8.01545205E-02  3.71490075E-01  2.67899509E-02  1.77194462E+00 -2.30590389E-01  1.88371472E+00  3.03491726E+00  2.30553089E-01  2.00835476E-01  3.79439656E-01  4.10799778E-02  1.78999123E+00 -2.37521633E-01  1.90505386E+00  2.58616540E+00  9.46867921E-02
  9.25000000E+00  2.13288202E-02  1.17849927E-01  3.84677445E-01  1.39521942E-02  1.96189563E+00 -2.97514237E-01  2.10540408E+00  8.92357849E-01  2.03788464E-01  7.81706367E-02  3.71067613E-01  2.62523377E-02  1.77739206E+00 -2.28114279E-01  1.88800716E+00  3.04356404E+00  2.25117284E-01  1.96020564E-01  3.79156800E-01  4.02045319E-02  1.79487292E+00 -2.34689604E-01  1.90861385E+00  2.59229529E+00  9.47453692E-02
  9.50000000E+00  2.08495583E-02  1.15141867E-01  3.84477247E-01  1.36291604E-02  1.96125300E+00 -2.91303005E-01  2.10186399E+00  8.91089316E-01  1.99033863E-01  7.62606164E-02  3.70648576E-01  2.57291701E-02  1.78261802E+00 -2.25562431E-01  1.89204087E+00  3.05179022E+00  2.19883421E-01  1.91402483E-01  3.78870770E-01  3.93583305E-02  1.79955636E+00 -2.31796016E-01  1.91194484E+00  2.59811785E+00  9.48209655E-02
  9.75000000E+00  2.03912429E-02  1.12549460E-01  3.84267766E-01  1.33200775E-02  1.96062254E+00 -2.85168367E-01  2.09836800E+00  8.89849635E-01  1.94450304E-01  7.44207414E-02  3.70232350E-01  2.52201573E-02  1.78763784E+00 -2.22949081E-01  1.89583788E+00  3.05963306E+00  2.14841546E-01  1.86970201E-01  3.78581094E-01  3.85402349E-02  1.80405632E+00 -2.28854496E-01  1.91506805E+00  2.60366336E+00  9.49129402E-02
  1.00000000E+01  1.99526639E-02  1.10065954E-01  3.84048745E-01  1.30241577E-02  1.96001597E+00 -2.79118308E-01  2.09493173E+00  8.88645709E-01  1.90029759E-01  7.26475775E-02  3.69818401E-01  2.47250048E-02  1.79246567E+00 -2.20286914E-01  1.89941831E+00  3.06712653E+00  2.09982423E-01  1.82713531E-01  3.78287392E-01  3.77491625E-02  1.80838640E+00 -2.25877110E-01  1.91800273E+00  2.60895930E+00  9.50206386E-02
  1.02500000E+01  1.95326979E-02  1.07685103E-01  3.83820029E-01  1.27406678E-02  1.95944363E+00 -2.73159204E-01  2.09156865E+00  8.87483434E-01  1.85764754E-01  7.09379417E-02  3.69406271E-01  2.42434142E-02  1.79711456E+00 -2.17587213E-01  1.90280054E+00  3.07430156E+00  2.05297452E-01  1.78623045E-01  3.77989372E-01  3.69840820E-02  1.81255910E+00 -2.22874521E-01  1.92076644E+00  2.61403055E+00  9.51434014E-02
  1.05000000E+01  1.91303005E-02  1.05401129E-01  3.83581549E-01  1.24689254E-02  1.95891457E+00 -2.67296065E-01  2.08829032E+00  8.86367797E-01  1.81648303E-01  6.92888728E-02  3.68995567E-01  2.37750837E-02  1.80159657E+00 -2.14860000E-01  1.90600137E+00  3.08118636E+00  2.00778604E-01  1.74690002E-01  3.77686818E-01  3.62440092E-02  1.81658592E+00 -2.19856139E-01  1.92337515E+00  2.61889968E+00  9.52805733E-02
  1.07500000E+01  1.87445003E-02  1.03208673E-01  3.83333316E-01  1.22082949E-02  1.95843664E+00 -2.61532745E-01  2.08510656E+00  8.85302968E-01  1.77673857E-01  6.76976075E-02  3.68585960E-01  2.33197085E-02  1.80592282E+00 -2.12114162E-01  1.90903615E+00  3.08780659E+00  1.96418357E-01  1.70906281E-01  3.77379581E-01  3.55280034E-02  1.82047744E+00 -2.16830252E-01  1.92584337E+00  2.62358710E+00  9.54315094E-02
  1.10000000E+01  1.83743932E-02  1.01102768E-01  3.83075411E-01  1.19581834E-02  1.95801657E+00 -2.55872111E-01  2.08202563E+00  8.84292378E-01  1.73835257E-01  6.61615591E-02  3.68177177E-01  2.28769812E-02  1.81010360E+00 -2.09357558E-01  1.91191891E+00  3.09418566E+00  1.92209651E-01  1.67264327E-01  3.77067574E-01  3.48351646E-02  1.82424343E+00 -2.13804144E-01  1.92818435E+00  2.62811132E+00  9.55955807E-02
  1.12500000E+01  1.80191367E-02  9.90787955E-02  3.82807973E-01  1.17180380E-02  1.95766008E+00 -2.50316202E-01  2.07905436E+00  8.83338799E-01  1.70126702E-01  6.46783004E-02  3.67768994E-01  2.24465925E-02  1.81414844E+00 -2.06597129E-01  1.91466248E+00  3.10034484E+00  1.88145839E-01  1.63757096E-01  3.76750764E-01  3.41646304E-02  1.82789286E+00 -2.10784200E-01  1.93041012E+00  2.63248905E+00  9.57721777E-02
  1.15000000E+01  1.76779457E-02  9.71324658E-02  3.82531193E-01  1.14873420E-02  1.95737195E+00 -2.44866353E-01  2.07619832E+00  8.82444411E-01  1.66542711E-01  6.32455477E-02  3.67361235E-01  2.20282324E-02  1.81806612E+00 -2.03838987E-01  1.91727858E+00  3.10630352E+00  1.84220656E-01  1.60378013E-01  3.76429166E-01  3.35155744E-02  1.83143400E+00 -2.07776002E-01  1.93253164E+00  2.63673542E+00  9.59607140E-02
  1.17500000E+01  1.73500873E-02  9.52597837E-02  3.82245309E-01  1.12656129E-02  1.95715608E+00 -2.39523309E-01  2.07346194E+00  8.81610866E-01  1.63078094E-01  6.18611481E-02  3.66953763E-01  2.16215904E-02  1.82186479E+00 -2.01088501E-01  1.91977795E+00  3.11207932E+00  1.80428182E-01  1.57120932E-01  3.76102837E-01  3.28872034E-02  1.83487448E+00 -2.04784416E-01  1.93455888E+00  2.64086410E+00  9.61606281E-02
  1.20000000E+01  1.70348771E-02  9.34570269E-02  3.81950596E-01  1.10523993E-02  1.95701559E+00 -2.34287320E-01  2.07084861E+00  8.80839341E-01  1.59727937E-01  6.05230682E-02  3.66546479E-01  2.12263571E-02  1.82555200E+00 -1.98350371E-01  1.92217039E+00  3.11768826E+00  1.76762814E-01  1.53980095E-01  3.75771871E-01  3.22787564E-02  1.83822133E+00 -2.01813664E-01  1.93650092E+00  2.64488740E+00  9.63713848E-02
  1.22500000E+01  1.67316758E-02  9.17207228E-02  3.81647362E-01  1.08472787E-02  1.95695289E+00 -2.29158218E-01  2.06836082E+00  8.80130594E-01  1.56487569E-01  5.92293839E-02  3.66139318E-01  2.08422240E-02  1.82913472E+00 -1.95628698E-01  1.92446488E+00  3.12314492E+00  1.73219245E-01  1.50950107E-01  3.75436397E-01  3.16895027E-02  1.84148100E+00 -1.98867397E-01  1.93836601E+00  2.64881643E+00  9.65924763E-02
  1.25000000E+01  1.64398851E-02  9.00476289E-02  3.81335942E-01  1.06498552E-02  1.95696973E+00 -2.24135492E-01  2.06600022E+00  8.79485009E-01  1.53352555E-01  5.79782719E-02  3.65732243E-01  2.04688852E-02  1.83261944E+00 -1.92927047E-01  1.92666963E+00  3.12846253E+00  1.69792440E-01  1.48025901E-01  3.75096569E-01  3.11187404E-02  1.84465946E+00 -1.95948755E-01  1.94016165E+00  2.65266120E+00  9.68234225E-02
  1.27500000E+01  1.61589452E-02  8.84347137E-02  3.81016694E-01  1.04597579E-02  1.95706725E+00 -2.19218343E-01  2.06376774E+00  8.78902634E-01  1.50318671E-01  5.67680024E-02  3.65325244E-01  2.01060375E-02  1.83601213E+00 -1.90248500E-01  1.92879213E+00  3.13365308E+00  1.66477616E-01  1.45202716E-01  3.74752568E-01  3.05657953E-02  1.84776220E+00 -1.93060423E-01  1.94189466E+00  2.65643069E+00  9.70637710E-02
  1.30000000E+01  1.58883314E-02  8.68791402E-02  3.80689994E-01  1.02766385E-02  1.95724609E+00 -2.14405737E-01  2.06166366E+00  8.78383227E-01  1.47381896E-01  5.55969320E-02  3.64918335E-01  1.97533812E-02  1.83931836E+00 -1.87595711E-01  1.93083926E+00  3.13872748E+00  1.63270228E-01  1.42476072E-01  3.74404593E-01  3.00300197E-02  1.85079427E+00 -1.90204677E-01  1.94357124E+00  2.66013300E+00  9.73130965E-02
  1.32500000E+01  1.56275520E-02  8.53782507E-02  3.80356233E-01  1.01001701E-02  1.95750638E+00 -2.09696445E-01  2.05968768E+00  8.77926285E-01  1.44538398E-01  5.44634982E-02  3.64511549E-01  1.94106209E-02  1.84254327E+00 -1.84970945E-01  1.93281729E+00  3.14369560E+00  1.60165950E-01  1.39841749E-01  3.74052864E-01  2.95107910E-02  1.85376034E+00 -1.87383437E-01  1.94519700E+00  2.66377534E+00  9.75710006E-02
  1.35000000E+01  1.53761454E-02  8.39295527E-02  3.80015813E-01  9.93004566E-03  1.95784782E+00 -2.05089079E-01  2.05783899E+00  8.77531076E-01  1.41784520E-01  5.33662137E-02  3.64104940E-01  1.90774657E-02  1.84569165E+00 -1.82376125E-01  1.93473196E+00  3.14856636E+00  1.57160666E-01  1.37295766E-01  3.73697615E-01  2.90075113E-02  1.85666468E+00 -1.84598295E-01  1.94677705E+00  2.66736418E+00  9.78371106E-02
  1.37500000E+01  1.51336782E-02  8.25307061E-02  3.79669144E-01  9.76597605E-03  1.95826973E+00 -2.00582129E-01  2.05611630E+00  8.77196669E-01  1.39116773E-01  5.23036620E-02  3.63698574E-01  1.87536298E-02  1.84876791E+00 -1.79812868E-01  1.93658850E+00  3.15334785E+00  1.54250451E-01  1.34834368E-01  3.73339090E-01  2.85196058E-02  1.85951125E+00 -1.81850563E-01  1.94831600E+00  2.67090531E+00  9.81110788E-02
  1.40000000E+01  1.48997430E-02  8.11795121E-02  3.79316642E-01  9.60768936E-03  1.95877108E+00 -1.96173981E-01  2.05451797E+00  8.76921956E-01  1.36531826E-01  5.12744928E-02  3.63292533E-01  1.84388329E-02  1.85177616E+00 -1.77282515E-01  1.93839172E+00  3.15804738E+00  1.51431569E-01  1.32454005E-01  3.72977545E-01  2.80465222E-02  1.86230367E+00 -1.79141295E-01  1.94981805E+00  2.67440386E+00  9.83925814E-02
  1.42500000E+01  1.46739565E-02  7.98739019E-02  3.78958726E-01  9.45492935E-03  1.95935055E+00 -1.91862946E-01  2.05304197E+00  8.76705681E-01  1.34026495E-01  5.02774183E-02  3.62886912E-01  1.81328006E-02  1.85472021E+00 -1.74786163E-01  1.94014600E+00  3.16267154E+00  1.48700452E-01  1.30151320E-01  3.72613243E-01  2.75877299E-02  1.86504527E+00 -1.76471322E-01  1.95128698E+00  2.67786439E+00  9.86813174E-02
  1.45000000E+01  1.44559579E-02  7.86119275E-02  3.78595814E-01  9.30745445E-03  1.96000651E+00 -1.87647272E-01  2.05168599E+00  8.76546456E-01  1.31597740E-01  4.93112095E-02  3.62481813E-01  1.78352645E-02  1.85760360E+00 -1.72324693E-01  1.94185532E+00  3.16722626E+00  1.46053698E-01  1.27923137E-01  3.72246454E-01  2.71427189E-02  1.86773913E+00 -1.73841276E-01  1.95272620E+00  2.68129093E+00  9.89770070E-02
  1.47500000E+01  1.42454072E-02  7.73917526E-02  3.78228326E-01  9.16503673E-03  1.96073714E+00 -1.83525168E-01  2.05044745E+00  8.76442780E-01  1.29242653E-01  4.83746930E-02  3.62077348E-01  1.75459625E-02  1.86042959E+00 -1.69898793E-01  1.94352335E+00  3.17171690E+00  1.43488060E-01  1.25766446E-01  3.71877449E-01  2.67109992E-02  1.87038806E+00 -1.71251611E-01  1.95413881E+00  2.68468705E+00  9.92793910E-02
  1.50000000E+01  1.40419839E-02  7.62116446E-02  3.77856676E-01  9.02746094E-03  1.96154039E+00 -1.79494811E-01  2.04932355E+00  8.76393060E-01  1.26958454E-01  4.74667481E-02  3.61673635E-01  1.72646390E-02  1.86320124E+00 -1.67508980E-01  1.94515341E+00  3.17614825E+00  1.41000438E-01  1.23678393E-01  3.71506503E-01  2.62921000E-02  1.87299466E+00 -1.68702627E-01  1.95552758E+00  2.68805586E+00  9.95882291E-02
  1.52500000E+01  1.38453854E-02  7.50699670E-02  3.77481276E-01  8.89452367E-03  1.96241402E+00 -1.75554359E-01  2.04831129E+00  8.76395622E-01  1.24742484E-01  4.65863035E-02  3.61270801E-01  1.69910452E-02  1.86592136E+00 -1.65155618E-01  1.94674855E+00  3.18052461E+00  1.38587869E-01  1.21656271E-01  3.71133894E-01  2.58855688E-02  1.87556130E+00 -1.66194487E-01  1.95689502E+00  2.69140009E+00  9.99032991E-02
  1.55000000E+01  1.36553258E-02  7.39651729E-02  3.77102532E-01  8.76603251E-03  1.96335567E+00 -1.71701962E-01  2.04740751E+00  8.76448729E-01  1.22592199E-01  4.57323354E-02  3.60868972E-01  1.67249385E-02  1.86859258E+00 -1.62838940E-01  1.94831154E+00  3.18484986E+00  1.36247525E-01  1.19697508E-01  3.70759896E-01  2.54909711E-02  1.87809015E+00 -1.63727231E-01  1.95824338E+00  2.69472211E+00  1.00224395E-01
  1.57500000E+01  1.34715350E-02  7.28957984E-02  3.76720844E-01  8.64180537E-03  1.96436282E+00 -1.67935768E-01  2.04660892E+00  8.76550590E-01  1.20505165E-01  4.49038647E-02  3.60468281E-01  1.64660836E-02  1.87121732E+00 -1.60559059E-01  1.94984491E+00  3.18912742E+00  1.33976700E-01  1.17799663E-01  3.70384784E-01  2.51078890E-02  1.88058323E+00 -1.61300797E-01  1.95957466E+00  2.69802397E+00  1.00551327E-01
  1.60000000E+01  1.32937575E-02  7.18604568E-02  3.76336602E-01  8.52166974E-03  1.96543287E+00 -1.64253932E-01  2.04591213E+00  8.76699374E-01  1.18479053E-01  4.40999547E-02  3.60068864E-01  1.62142516E-02  1.87379785E+00 -1.58315984E-01  1.95135095E+00  3.19336038E+00  1.31772810E-01  1.15960412E-01  3.70008830E-01  2.47359213E-02  1.88304235E+00 -1.58915028E-01  1.96089067E+00  2.70130741E+00  1.00883919E-01
  1.62500000E+01  1.31217512E-02  7.08578338E-02  3.75950191E-01  8.40546209E-03  1.96656312E+00 -1.60654616E-01  2.04531366E+00  8.76893220E-01  1.16511631E-01  4.33197091E-02  3.59670855E-01  1.59692203E-02  1.87633626E+00 -1.56109635E-01  1.95283177E+00  3.19755144E+00  1.29633382E-01  1.14177543E-01  3.69632301E-01  2.43746824E-02  1.88546921E+00 -1.56569687E-01  1.96219302E+00  2.70457391E+00  1.01222008E-01
  1.65000000E+01  1.29552869E-02  6.98866820E-02  3.75561984E-01  8.29302729E-03  1.96775081E+00 -1.57136002E-01  2.04480995E+00  8.77130246E-01  1.14600765E-01  4.25622699E-02  3.59274392E-01  1.57307744E-02  1.87883450E+00 -1.53939849E-01  1.95428928E+00  3.20170304E+00  1.27556052E-01  1.12448952E-01  3.69255464E-01  2.40238017E-02  1.88786533E+00 -1.54264468E-01  1.96348314E+00  2.70782472E+00  1.01565443E-01
  1.67500000E+01  1.27941472E-02  6.89458171E-02  3.75172345E-01  8.18421806E-03  1.96899312E+00 -1.53696289E-01  2.04439743E+00  8.77408557E-01  1.12744409E-01  4.18268159E-02  3.58879612E-01  1.54987051E-02  1.88129438E+00 -1.51806396E-01  1.95572520E+00  3.20581731E+00  1.25538556E-01  1.10772633E-01  3.68878576E-01  2.36829231E-02  1.89023211E+00 -1.51999003E-01  1.96476229E+00  2.71106085E+00  1.01914086E-01
  1.70000000E+01  1.26381257E-02  6.80341132E-02  3.74781629E-01  8.07889448E-03  1.97028720E+00 -1.50333698E-01  2.04407246E+00  8.77726253E-01  1.10940605E-01  4.11125602E-02  3.58486651E-01  1.52728100E-02  1.88371757E+00 -1.49708985E-01  1.95714111E+00  3.20989612E+00  1.23578731E-01  1.09146673E-01  3.68501892E-01  2.33517045E-02  1.89257086E+00 -1.49772873E-01  1.96603159E+00  2.71428315E+00  1.02267806E-01
  1.72500000E+01  1.24870266E-02  6.71504993E-02  3.74390178E-01  7.97692352E-03  1.97163019E+00 -1.47046475E-01  2.04383142E+00  8.78081437E-01  1.09187477E-01  4.04187494E-02  3.58095644E-01  1.50528936E-02  1.88610565E+00 -1.47647273E-01  1.95853845E+00  3.21394111E+00  1.21674504E-01  1.07569249E-01  3.68125661E-01  2.30298171E-02  1.89488273E+00 -1.47585615E-01  1.96729205E+00  2.71749225E+00  1.02626485E-01
  1.75000000E+01  1.23406636E-02  6.62939559E-02  3.73998325E-01  7.87817863E-03  1.97301920E+00 -1.43832892E-01  2.04367067E+00  8.78472221E-01  1.07483227E-01  3.97446614E-02  3.57706723E-01  1.48387661E-02  1.88846005E+00 -1.45620870E-01  1.95991851E+00  3.21795372E+00  1.19823890E-01  1.06038617E-01  3.67750123E-01  2.27169447E-02  1.89716880E+00 -1.45436726E-01  1.96854451E+00  2.72068866E+00  1.02990010E-01