	#GIMM_INFO: ns=1 ms=0 np=1 mp=0 dim=1 npx=1 npy=1 npz=1 ngx=21 ngy=1 ngz=1
  #GIMM_VARS: tpx=1 tpy=0 tpz=0 tpf=1 svx=X svy=@ svz=@ svf=A
		#GIMM_MINS: 0.000000e+000 -1.000000e+000
      #GIMM_MAXS: 1.000000e+000 1.000000e+000
TITLE="Distribution"
VARIABLES = "X","A"
#GIMM_ZONE: num=0 mpx=0 mpy=0 mpz=0 szx=21 szy=1 szz=1 shx=0 shy=0 shz=0
ZONE T="ZONE 0", I=21, F=POINT
0.000000 0.000000
0.050000 0.309017
0.100000 0.587785
0.150000 0.809017
0.200000 0.951057
0.250000 1.000000
0.300000 0.951056
0.350000 0.809017
0.400000 0.587785
0.450000 0.309017
0.500000 -0.000000
0.550000 -0.309017
0.600000 -0.587786
0.650000 -0.809017
0.700000 -0.951056
0.750000 -1.000000
0.800000 -0.951056
0.850000 -0.809017
0.900000 -0.587785
0.950000 -0.309017
1.000000 0.000000
