#GIMM_INFO: ns=1 ms=0 np=1 mp=0 dim=1 npx=1 npy=1 npz=1 ngx=21 ngy=1 ngz=1
#GIMM_VARS: tpx=1 tpy=0 tpz=0 tpf=1 svx=X svy=@ svz=@ svf=B
#GIMM_MINS: 0.000000e+000 3.678795e-001 
#GIMM_MAXS: 1.000000e+000 1.000000e+000 
TITLE = "Distribution"
VARIABLES = "X","B"
#GIMM_ZONE: num=0 mpx=0 mpy=0 mpz=0 szx=21 szy=1 szz=1 shx=0 shy=0 shz=0
ZONE T="ZONE 0", I=21, F=POINT
0.000000e+000 1.000000e+000 
5.000000e-002 9.975031e-001 
1.000000e-001 9.900498e-001 
1.500000e-001 9.777513e-001 
2.000000e-001 9.607894e-001 
2.500000e-001 9.394131e-001 
3.000000e-001 9.139312e-001 
3.500000e-001 8.847059e-001 
4.000000e-001 8.521438e-001 
4.500000e-001 8.166865e-001 
5.000000e-001 7.788008e-001 
5.500000e-001 7.389685e-001 
6.000000e-001 6.976763e-001 
6.500000e-001 6.554062e-001 
7.000000e-001 6.126264e-001 
7.500000e-001 5.697829e-001 
8.000000e-001 5.272924e-001 
8.500000e-001 4.855369e-001 
9.000000e-001 4.448580e-001 
9.500000e-001 4.055545e-001 
1.000000e+000 3.678795e-001 
